
Predictions were generated on 08-Mar-2023 at 16:55:39 using OpenFAST, compiled as a 64-bit application using single precision at commit v3.2.1
 linked with  NWTC Subroutine Library; ElastoDyn; InflowWind; AeroDyn; ServoDyn

Description from the FAST input file: NREL Wind Turbine Modeling Workshop Simulation

Time	Wind1VelX	Wind1VelY	Wind1VelZ	OoPDefl1	IPDefl1	BldPitch1	Azimuth	RotSpeed	GenSpeed	TTDspFA	TTDspSS	RootMyc1	RotThrust	RotTorq	RotPwr	TwrBsFxt	TwrBsFyt	TwrBsFzt	TwrBsMxt	TwrBsMyt	TwrBsMzt	RtAeroPwr	RtAeroCp	RtAeroCt	GenPwr	GenTq
(s)	(m/s)	(m/s)	(m/s)	(m)	(m)	(deg)	(deg)	(rpm)	(rpm)	(m)	(m)	(kN-m)	(kN)	(kN-m)	(kW)	(kN)	(kN)	(kN)	(kN-m)	(kN-m)	(kN-m)	(W)	(-)	(-)	(kW)	(kN-m)
    0.0000	 8.000E+00	 0.000E+00	 0.000E+00	 0.000E+00	 0.000E+00	 0.000E+00	 0.000E+00	 6.000E+00	 5.820E+02	 0.000E+00	 0.000E+00	 6.666E+01	 6.794E+01	 5.745E-05	 3.609E-05	-1.403E+01	 2.182E-02	-6.732E+03	-4.263E-01	-3.266E+02	-6.803E-06	 1.355E+06	 3.511E-01	 5.082E-01	 4.984E+02	 8.663E+00
    0.0500	 8.000E+00	 0.000E+00	 0.000E+00	 4.314E-02	-4.372E-03	 0.000E+00	 1.801E+00	 6.005E+00	 5.752E+02	-7.598E-05	-1.251E-05	 2.312E+02	 8.765E+01	 2.344E+02	 1.474E+02	-5.473E+00	-5.459E+00	-6.742E+03	 8.898E+01	-9.925E+01	-6.308E+01	 1.152E+06	 3.711E-01	 5.630E-01	 4.811E+02	 8.462E+00
    0.1000	 8.000E+00	 0.000E+00	 0.000E+00	 1.627E-01	-2.171E-02	 0.000E+00	 3.600E+00	 5.985E+00	 5.717E+02	-2.445E-04	-1.051E-04	 5.300E+02	 1.076E+02	 6.461E+02	 4.049E+02	 1.325E+01	-6.080E+00	-6.762E+03	 1.329E+01	 4.091E+02	-3.477E+01	 9.752E+05	 3.843E-01	 6.072E-01	 4.724E+02	 8.359E+00
    0.1500	 8.000E+00	 0.000E+00	 0.000E+00	 3.444E-01	-5.862E-02	 0.000E+00	 5.391E+00	 5.955E+00	 5.718E+02	-3.320E-04	-3.631E-04	 9.872E+02	 1.405E+02	 9.773E+02	 6.095E+02	 2.868E+01	 1.190E+01	-6.792E+03	-5.283E+02	 8.408E+02	 3.628E+01	 8.346E+05	 3.912E-01	 6.370E-01	 4.728E+02	 8.363E+00
    0.2000	 8.000E+00	 0.000E+00	 0.000E+00	 5.753E-01	-1.100E-01	 0.000E+00	 7.176E+00	 5.952E+00	 5.743E+02	-8.749E-05	-8.253E-04	 1.534E+03	 1.820E+02	 1.159E+03	 7.227E+02	 3.028E+01	 4.142E+01	-6.827E+03	-1.320E+03	 9.317E+02	-1.336E+01	 7.460E+05	 4.005E-01	 6.579E-01	 4.788E+02	 8.434E+00
    0.2500	 8.000E+00	 0.000E+00	 0.000E+00	 8.442E-01	-1.603E-01	 0.000E+00	 8.966E+00	 5.985E+00	 5.779E+02	 7.621E-04	-1.469E-03	 2.097E+03	 2.252E+02	 1.283E+03	 8.039E+02	 1.885E+01	 5.881E+01	-6.864E+03	-1.746E+03	 7.337E+02	-6.787E+01	 7.068E+05	 4.156E-01	 6.732E-01	 4.881E+02	 8.543E+00
    0.3000	 8.000E+00	 0.000E+00	 0.000E+00	 1.139E+00	-1.987E-01	 0.000E+00	 1.077E+01	 6.023E+00	 5.826E+02	 2.461E-03	-2.252E-03	 2.624E+03	 2.634E+02	 1.383E+03	 8.725E+02	 6.007E+00	 5.032E+01	-6.897E+03	-1.448E+03	 5.951E+02	-1.000E+02	 7.028E+05	 4.312E-01	 6.829E-01	 4.999E+02	 8.681E+00
    0.3500	 8.000E+00	 0.000E+00	 0.000E+00	 1.446E+00	-2.288E-01	 0.000E+00	 1.258E+01	 6.038E+00	 5.876E+02	 5.201E-03	-3.144E-03	 3.083E+03	 2.923E+02	 1.365E+03	 8.634E+02	 5.393E+00	 2.543E+01	-6.925E+03	-6.628E+02	 9.137E+02	-1.999E+02	 7.205E+05	 4.394E-01	 6.849E-01	 5.129E+02	 8.830E+00
    0.4000	 8.000E+00	 0.000E+00	 0.000E+00	 1.749E+00	-2.601E-01	 0.000E+00	 1.439E+01	 6.033E+00	 5.913E+02	 9.117E-03	-4.102E-03	 3.463E+03	 3.115E+02	 1.146E+03	 7.239E+02	 2.222E+01	 3.288E+00	-6.943E+03	 1.038E+02	 1.848E+03	-2.630E+02	 7.541E+05	 4.380E-01	 6.788E-01	 5.228E+02	 8.943E+00
    0.4500	 8.000E+00	 0.000E+00	 0.000E+00	 2.033E+00	-2.962E-01	 0.000E+00	 1.620E+01	 6.030E+00	 5.923E+02	 1.430E-02	-5.052E-03	 3.769E+03	 3.243E+02	 8.026E+02	 5.068E+02	 4.954E+01	-6.752E+00	-6.950E+03	 5.679E+02	 3.216E+03	-2.042E+02	 8.048E+05	 4.304E-01	 6.667E-01	 5.254E+02	 8.973E+00
    0.5000	 8.000E+00	 0.000E+00	 0.000E+00	 2.283E+00	-3.330E-01	 0.000E+00	 1.801E+01	 6.039E+00	 5.903E+02	 2.080E-02	-5.903E-03	 4.012E+03	 3.355E+02	 5.287E+02	 3.344E+02	 7.406E+01	-9.212E+00	-6.947E+03	 7.959E+02	 4.656E+03	-1.214E+02	 8.749E+05	 4.218E-01	 6.519E-01	 5.201E+02	 8.913E+00
    0.5500	 8.000E+00	 0.000E+00	 0.000E+00	 2.489E+00	-3.674E-01	 0.000E+00	 1.982E+01	 6.050E+00	 5.868E+02	 2.864E-02	-6.581E-03	 4.209E+03	 3.485E+02	 4.554E+02	 2.885E+02	 8.665E+01	-1.150E+01	-6.934E+03	 9.485E+02	 5.916E+03	-3.512E+01	 9.613E+05	 4.137E-01	 6.349E-01	 5.108E+02	 8.806E+00
    0.6000	 8.000E+00	 0.000E+00	 0.000E+00	 2.644E+00	-4.028E-01	 0.000E+00	 2.164E+01	 6.046E+00	 5.835E+02	 3.782E-02	-7.067E-03	 4.380E+03	 3.641E+02	 5.557E+02	 3.519E+02	 8.908E+01	-1.334E+01	-6.913E+03	 1.022E+03	 7.043E+03	 1.065E+02	 1.056E+06	 4.052E-01	 6.158E-01	 5.023E+02	 8.708E+00
    0.6500	 8.000E+00	 0.000E+00	 0.000E+00	 2.749E+00	-4.439E-01	 0.000E+00	 2.345E+01	 6.035E+00	 5.816E+02	 4.831E-02	-7.396E-03	 4.531E+03	 3.800E+02	 7.255E+02	 4.585E+02	 9.213E+01	-9.113E+00	-6.887E+03	 8.949E+02	 8.333E+03	 2.539E+02	 1.153E+06	 3.967E-01	 5.952E-01	 4.975E+02	 8.653E+00
    0.7000	 8.000E+00	 0.000E+00	 0.000E+00	 2.806E+00	-4.880E-01	 0.000E+00	 2.526E+01	 6.038E+00	 5.815E+02	 6.008E-02	-7.639E-03	 4.657E+03	 3.933E+02	 9.139E+02	 5.778E+02	 1.069E+02	 2.361E+00	-6.859E+03	 5.566E+02	 1.009E+04	 3.657E+02	 1.252E+06	 3.901E-01	 5.744E-01	 4.970E+02	 8.647E+00
    0.7500	 8.000E+00	 0.000E+00	 0.000E+00	 2.824E+00	-5.247E-01	 0.000E+00	 2.707E+01	 6.063E+00	 5.831E+02	 7.309E-02	-7.882E-03	 4.744E+03	 4.013E+02	 1.135E+03	 7.208E+02	 1.365E+02	 1.553E+01	-6.833E+03	 1.643E+02	 1.240E+04	 4.724E+02	 1.349E+06	 3.853E-01	 5.544E-01	 5.013E+02	 8.696E+00
    0.8000	 8.000E+00	 0.000E+00	 0.000E+00	 2.809E+00	-5.443E-01	 0.000E+00	 2.890E+01	 6.102E+00	 5.869E+02	 8.727E-02	-8.233E-03	 4.774E+03	 4.031E+02	 1.376E+03	 8.794E+02	 1.742E+02	 2.512E+01	-6.811E+03	-1.221E+02	 1.506E+04	 5.448E+02	 1.425E+06	 3.775E-01	 5.365E-01	 5.111E+02	 8.809E+00
    0.8500	 8.000E+00	 0.000E+00	 0.000E+00	 2.769E+00	-5.457E-01	 0.000E+00	 3.073E+01	 6.136E+00	 5.925E+02	 1.025E-01	-8.803E-03	 4.730E+03	 3.997E+02	 1.550E+03	 9.957E+02	 2.087E+02	 3.067E+01	-6.795E+03	-2.548E+02	 1.776E+04	 5.468E+02	 1.488E+06	 3.696E-01	 5.208E-01	 5.259E+02	 8.979E+00
    0.9000	 8.000E+00	 0.000E+00	 0.000E+00	 2.709E+00	-5.344E-01	 0.000E+00	 3.258E+01	 6.161E+00	 5.989E+02	 1.186E-01	-9.684E-03	 4.618E+03	 3.932E+02	 1.558E+03	 1.005E+03	 2.333E+02	 3.317E+01	-6.787E+03	-2.273E+02	 2.029E+04	 5.334E+02	 1.541E+06	 3.631E-01	 5.083E-01	 5.430E+02	 9.173E+00
    0.9500	 8.000E+00	 0.000E+00	 0.000E+00	 2.632E+00	-5.159E-01	 0.000E+00	 3.443E+01	 6.184E+00	 6.043E+02	 1.353E-01	-1.092E-02	 4.460E+03	 3.859E+02	 1.395E+03	 9.035E+02	 2.511E+02	 3.032E+01	-6.788E+03	 2.952E+01	 2.269E+04	 5.224E+02	 1.578E+06	 3.572E-01	 4.997E-01	 5.580E+02	 9.340E+00
    1.0000	 8.000E+00	 0.000E+00	 0.000E+00	 2.543E+00	-4.926E-01	 0.000E+00	 3.629E+01	 6.211E+00	 6.077E+02	 1.522E-01	-1.250E-02	 4.285E+03	 3.788E+02	 1.153E+03	 7.496E+02	 2.724E+02	 1.794E+01	-6.797E+03	 6.062E+02	 2.523E+04	 4.618E+02	 1.607E+06	 3.537E-01	 4.953E-01	 5.673E+02	 9.444E+00
    1.0500	 8.000E+00	 0.000E+00	 0.000E+00	 2.444E+00	-4.669E-01	 0.000E+00	 3.816E+01	 6.234E+00	 6.088E+02	 1.691E-01	-1.436E-02	 4.123E+03	 3.731E+02	 9.380E+02	 6.124E+02	 3.062E+02	-3.443E+00	-6.814E+03	 1.455E+03	 2.812E+04	 3.543E+02	 1.629E+06	 3.533E-01	 4.950E-01	 5.705E+02	 9.479E+00
    1.1000	 8.000E+00	 0.000E+00	 0.000E+00	 2.340E+00	-4.449E-01	 0.000E+00	 4.003E+01	 6.245E+00	 6.082E+02	 1.856E-01	-1.643E-02	 3.996E+03	 3.698E+02	 7.961E+02	 5.206E+02	 3.527E+02	-2.524E+01	-6.835E+03	 2.321E+03	 3.131E+04	 2.306E+02	 1.640E+06	 3.556E-01	 4.988E-01	 5.689E+02	 9.462E+00
    1.1500	 8.000E+00	 0.000E+00	 0.000E+00	 2.237E+00	-4.351E-01	 0.000E+00	 4.190E+01	 6.244E+00	 6.067E+02	 2.014E-01	-1.858E-02	 3.904E+03	 3.695E+02	 7.210E+02	 4.714E+02	 4.024E+02	-3.695E+01	-6.858E+03	 2.908E+03	 3.452E+04	 8.752E+01	 1.639E+06	 3.609E-01	 5.067E-01	 5.647E+02	 9.416E+00
    1.2000	 8.000E+00	 0.000E+00	 0.000E+00	 2.143E+00	-4.426E-01	 0.000E+00	 4.377E+01	 6.242E+00	 6.049E+02	 2.164E-01	-2.066E-02	 3.836E+03	 3.724E+02	 7.159E+02	 4.679E+02	 4.425E+02	-3.579E+01	-6.879E+03	 3.120E+03	 3.736E+04	-5.497E+01	 1.629E+06	 3.694E-01	 5.180E-01	 5.596E+02	 9.359E+00
    1.2500	 8.000E+00	 0.000E+00	 0.000E+00	 2.065E+00	-4.659E-01	 0.000E+00	 4.565E+01	 6.250E+00	 6.035E+02	 2.304E-01	-2.252E-02	 3.783E+03	 3.770E+02	 8.059E+02	 5.274E+02	 4.665E+02	-2.857E+01	-6.896E+03	 3.117E+03	 3.963E+04	-1.560E+02	 1.610E+06	 3.806E-01	 5.320E-01	 5.557E+02	 9.315E+00
    1.3000	 8.000E+00	 0.000E+00	 0.000E+00	 2.011E+00	-4.997E-01	 0.000E+00	 4.753E+01	 6.267E+00	 6.034E+02	 2.430E-01	-2.402E-02	 3.739E+03	 3.811E+02	 9.913E+02	 6.506E+02	 4.785E+02	-2.402E+01	-6.907E+03	 3.119E+03	 4.142E+04	-2.109E+02	 1.570E+06	 3.901E-01	 5.470E-01	 5.555E+02	 9.312E+00
    1.3500	 8.000E+00	 0.000E+00	 0.000E+00	 1.983E+00	-5.382E-01	 0.000E+00	 4.941E+01	 6.286E+00	 6.052E+02	 2.542E-01	-2.503E-02	 3.707E+03	 3.832E+02	 1.212E+03	 7.979E+02	 4.891E+02	-2.466E+01	-6.911E+03	 3.196E+03	 4.300E+04	-2.091E+02	 1.528E+06	 4.004E-01	 5.621E-01	 5.605E+02	 9.368E+00
    1.4000	 8.000E+00	 0.000E+00	 0.000E+00	 1.982E+00	-5.774E-01	 0.000E+00	 5.130E+01	 6.304E+00	 6.088E+02	 2.638E-01	-2.552E-02	 3.700E+03	 3.831E+02	 1.376E+03	 9.081E+02	 5.077E+02	-2.633E+01	-6.908E+03	 3.250E+03	 4.461E+04	-1.122E+02	 1.476E+06	 4.071E-01	 5.765E-01	 5.705E+02	 9.479E+00
    1.4500	 8.000E+00	 0.000E+00	 0.000E+00	 2.004E+00	-6.130E-01	 0.000E+00	 5.319E+01	 6.323E+00	 6.133E+02	 2.715E-01	-2.548E-02	 3.727E+03	 3.828E+02	 1.424E+03	 9.429E+02	 5.346E+02	-2.428E+01	-6.899E+03	 3.169E+03	 4.623E+04	 6.598E+01	 1.427E+06	 4.122E-01	 5.897E-01	 5.831E+02	 9.619E+00
    1.5000	 8.000E+00	 0.000E+00	 0.000E+00	 2.048E+00	-6.401E-01	 0.000E+00	 5.509E+01	 6.346E+00	 6.175E+02	 2.773E-01	-2.496E-02	 3.789E+03	 3.852E+02	 1.364E+03	 9.063E+02	 5.611E+02	-1.866E+01	-6.885E+03	 2.959E+03	 4.763E+04	 2.673E+02	 1.386E+06	 4.161E-01	 6.004E-01	 5.954E+02	 9.753E+00
    1.5500	 8.000E+00	 0.000E+00	 0.000E+00	 2.108E+00	-6.560E-01	 0.000E+00	 5.700E+01	 6.369E+00	 6.208E+02	 2.812E-01	-2.402E-02	 3.888E+03	 3.924E+02	 1.238E+03	 8.256E+02	 5.762E+02	-1.377E+01	-6.870E+03	 2.738E+03	 4.848E+04	 4.635E+02	 1.353E+06	 4.182E-01	 6.080E-01	 6.048E+02	 9.856E+00
    1.6000	 8.000E+00	 0.000E+00	 0.000E+00	 2.179E+00	-6.620E-01	 0.000E+00	 5.891E+01	 6.384E+00	 6.226E+02	 2.832E-01	-2.278E-02	 4.018E+03	 4.045E+02	 1.083E+03	 7.237E+02	 5.745E+02	-1.313E+01	-6.856E+03	 2.606E+03	 4.865E+04	 6.387E+02	 1.329E+06	 4.188E-01	 6.129E-01	 6.103E+02	 9.915E+00
    1.6500	 8.000E+00	 0.000E+00	 0.000E+00	 2.258E+00	-6.625E-01	 0.000E+00	 6.083E+01	 6.388E+00	 6.230E+02	 2.834E-01	-2.140E-02	 4.169E+03	 4.192E+02	 9.213E+02	 6.163E+02	 5.599E+02	-1.626E+01	-6.843E+03	 2.563E+03	 4.825E+04	 7.672E+02	 1.314E+06	 4.181E-01	 6.153E-01	 6.114E+02	 9.927E+00
    1.7000	 8.000E+00	 0.000E+00	 0.000E+00	 2.341E+00	-6.616E-01	 0.000E+00	 6.274E+01	 6.387E+00	 6.220E+02	 2.819E-01	-2.003E-02	 4.328E+03	 4.329E+02	 7.867E+02	 5.262E+02	 5.428E+02	-1.982E+01	-6.833E+03	 2.530E+03	 4.757E+04	 8.457E+02	 1.311E+06	 4.170E-01	 6.157E-01	 6.083E+02	 9.894E+00
    1.7500	 8.000E+00	 0.000E+00	 0.000E+00	 2.425E+00	-6.608E-01	 0.000E+00	 6.466E+01	 6.386E+00	 6.200E+02	 2.787E-01	-1.884E-02	 4.479E+03	 4.426E+02	 7.251E+02	 4.849E+02	 5.318E+02	-2.032E+01	-6.829E+03	 2.419E+03	 4.688E+04	 8.822E+02	 1.320E+06	 4.158E-01	 6.144E-01	 6.027E+02	 9.833E+00
    1.8000	 8.000E+00	 0.000E+00	 0.000E+00	 2.507E+00	-6.598E-01	 0.000E+00	 6.658E+01	 6.390E+00	 6.181E+02	 2.741E-01	-1.795E-02	 4.608E+03	 4.469E+02	 7.677E+02	 5.137E+02	 5.276E+02	-1.579E+01	-6.829E+03	 2.185E+03	 4.620E+04	 8.672E+02	 1.340E+06	 4.144E-01	 6.115E-01	 5.970E+02	 9.770E+00
    1.8500	 8.000E+00	 0.000E+00	 0.000E+00	 2.585E+00	-6.589E-01	 0.000E+00	 6.849E+01	 6.396E+00	 6.170E+02	 2.681E-01	-1.745E-02	 4.707E+03	 4.469E+02	 9.024E+02	 6.044E+02	 5.234E+02	-6.595E+00	-6.833E+03	 1.850E+03	 4.538E+04	 7.975E+02	 1.369E+06	 4.126E-01	 6.072E-01	 5.938E+02	 9.736E+00
    1.9000	 8.000E+00	 0.000E+00	 0.000E+00	 2.654E+00	-6.592E-01	 0.000E+00	 7.041E+01	 6.404E+00	 6.174E+02	 2.610E-01	-1.739E-02	 4.775E+03	 4.448E+02	 1.079E+03	 7.233E+02	 5.108E+02	 4.282E+00	-6.840E+03	 1.513E+03	 4.419E+04	 6.844E+02	 1.403E+06	 4.095E-01	 6.009E-01	 5.950E+02	 9.749E+00
    1.9500	 8.000E+00	 0.000E+00	 0.000E+00	 2.711E+00	-6.615E-01	 0.000E+00	 7.234E+01	 6.418E+00	 6.194E+02	 2.528E-01	-1.773E-02	 4.816E+03	 4.425E+02	 1.241E+03	 8.341E+02	 4.867E+02	 1.190E+01	-6.849E+03	 1.316E+03	 4.255E+04	 5.261E+02	 1.442E+06	 4.055E-01	 5.932E-01	 6.008E+02	 9.812E+00
    2.0000	 8.000E+00	 0.000E+00	 0.000E+00	 2.754E+00	-6.647E-01	 0.000E+00	 7.427E+01	 6.439E+00	 6.226E+02	 2.436E-01	-1.837E-02	 4.840E+03	 4.409E+02	 1.356E+03	 9.146E+02	 4.562E+02	 1.183E+01	-6.858E+03	 1.377E+03	 4.064E+04	 3.208E+02	 1.486E+06	 4.016E-01	 5.844E-01	 6.101E+02	 9.913E+00
    2.0500	 8.000E+00	 0.000E+00	 0.000E+00	 2.780E+00	-6.671E-01	 0.000E+00	 7.620E+01	 6.466E+00	 6.265E+02	 2.335E-01	-1.919E-02	 4.854E+03	 4.397E+02	 1.412E+03	 9.557E+02	 4.283E+02	 3.297E+00	-6.866E+03	 1.703E+03	 3.869E+04	 8.536E+01	 1.534E+06	 3.982E-01	 5.755E-01	 6.216E+02	 1.004E+01
    2.1000	 8.000E+00	 0.000E+00	 0.000E+00	 2.792E+00	-6.681E-01	 0.000E+00	 7.814E+01	 6.492E+00	 6.304E+02	 2.226E-01	-2.001E-02	 4.859E+03	 4.382E+02	 1.401E+03	 9.521E+02	 4.091E+02	-9.592E+00	-6.872E+03	 2.162E+03	 3.690E+04	-1.581E+02	 1.585E+06	 3.956E-01	 5.670E-01	 6.336E+02	 1.017E+01
    2.1500	 8.000E+00	 0.000E+00	 0.000E+00	 2.788E+00	-6.696E-01	 0.000E+00	 8.010E+01	 6.514E+00	 6.339E+02	 2.111E-01	-2.065E-02	 4.853E+03	 4.357E+02	 1.324E+03	 9.031E+02	 3.971E+02	-2.075E+01	-6.875E+03	 2.568E+03	 3.524E+04	-3.867E+02	 1.635E+06	 3.936E-01	 5.594E-01	 6.440E+02	 1.028E+01
    2.2000	 8.000E+00	 0.000E+00	 0.000E+00	 2.773E+00	-6.743E-01	 0.000E+00	 8.205E+01	 6.531E+00	 6.363E+02	 1.992E-01	-2.093E-02	 4.828E+03	 4.320E+02	 1.202E+03	 8.218E+02	 3.843E+02	-2.665E+01	-6.875E+03	 2.799E+03	 3.351E+04	-5.680E+02	 1.680E+06	 3.920E-01	 5.532E-01	 6.515E+02	 1.036E+01
    2.2500	 8.000E+00	 0.000E+00	 0.000E+00	 2.749E+00	-6.844E-01	 0.000E+00	 8.401E+01	 6.547E+00	 6.375E+02	 1.869E-01	-2.072E-02	 4.782E+03	 4.271E+02	 1.076E+03	 7.376E+02	 3.630E+02	-2.816E+01	-6.873E+03	 2.850E+03	 3.151E+04	-6.766E+02	 1.722E+06	 3.911E-01	 5.489E-01	 6.552E+02	 1.040E+01
    2.3000	 8.000E+00	 0.000E+00	 0.000E+00	 2.720E+00	-7.004E-01	 0.000E+00	 8.598E+01	 6.561E+00	 6.377E+02	 1.746E-01	-1.992E-02	 4.713E+03	 4.204E+02	 9.929E+02	 6.822E+02	 3.317E+02	-2.817E+01	-6.868E+03	 2.779E+03	 2.923E+04	-7.071E+02	 1.757E+06	 3.907E-01	 5.459E-01	 6.558E+02	 1.040E+01
    2.3500	 8.000E+00	 0.000E+00	 0.000E+00	 2.687E+00	-7.211E-01	 0.000E+00	 8.795E+01	 6.574E+00	 6.375E+02	 1.621E-01	-1.852E-02	 4.629E+03	 4.115E+02	 9.782E+02	 6.734E+02	 2.971E+02	-2.767E+01	-6.863E+03	 2.604E+03	 2.685E+04	-6.582E+02	 1.787E+06	 3.912E-01	 5.447E-01	 6.550E+02	 1.039E+01
    2.4000	 8.000E+00	 0.000E+00	 0.000E+00	 2.652E+00	-7.441E-01	 0.000E+00	 8.992E+01	 6.586E+00	 6.374E+02	 1.498E-01	-1.657E-02	 4.540E+03	 4.002E+02	 1.028E+03	 7.090E+02	 2.688E+02	-2.435E+01	-6.859E+03	 2.271E+03	 2.465E+04	-5.324E+02	 1.810E+06	 3.922E-01	 5.450E-01	 6.547E+02	 1.039E+01
    2.4500	 8.000E+00	 0.000E+00	 0.000E+00	 2.616E+00	-7.658E-01	 0.000E+00	 9.190E+01	 6.600E+00	 6.380E+02	 1.375E-01	-1.422E-02	 4.458E+03	 3.873E+02	 1.121E+03	 7.747E+02	 2.519E+02	-1.497E+01	-6.857E+03	 1.716E+03	 2.278E+04	-3.489E+02	 1.828E+06	 3.939E-01	 5.468E-01	 6.565E+02	 1.041E+01
    2.5000	 8.000E+00	 0.000E+00	 0.000E+00	 2.581E+00	-7.815E-01	 0.000E+00	 9.389E+01	 6.617E+00	 6.395E+02	 1.254E-01	-1.165E-02	 4.395E+03	 3.748E+02	 1.232E+03	 8.536E+02	 2.437E+02	 9.401E-01	-6.857E+03	 9.536E+02	 2.118E+04	-1.353E+02	 1.839E+06	 3.964E-01	 5.500E-01	 6.612E+02	 1.046E+01
    2.5500	 8.000E+00	 0.000E+00	 0.000E+00	 2.548E+00	-7.875E-01	 0.000E+00	 9.587E+01	 6.639E+00	 6.419E+02	 1.136E-01	-9.064E-03	 4.356E+03	 3.648E+02	 1.336E+03	 9.288E+02	 2.350E+02	 1.965E+01	-6.861E+03	 1.167E+02	 1.959E+04	 7.996E+01	 1.845E+06	 3.998E-01	 5.544E-01	 6.688E+02	 1.054E+01
    2.6000	 8.000E+00	 0.000E+00	 0.000E+00	 2.519E+00	-7.819E-01	 0.000E+00	 9.787E+01	 6.663E+00	 6.451E+02	 1.021E-01	-6.674E-03	 4.342E+03	 3.585E+02	 1.407E+03	 9.816E+02	 2.177E+02	 3.525E+01	-6.866E+03	-6.023E+02	 1.780E+04	 2.687E+02	 1.845E+06	 4.040E-01	 5.599E-01	 6.789E+02	 1.065E+01
    2.6500	 8.000E+00	 0.000E+00	 0.000E+00	 2.495E+00	-7.649E-01	 0.000E+00	 9.987E+01	 6.686E+00	 6.487E+02	 9.106E-02	-4.666E-03	 4.347E+03	 3.557E+02	 1.422E+03	 9.957E+02	 1.901E+02	 4.308E+01	-6.873E+03	-1.050E+03	 1.578E+04	 4.113E+02	 1.840E+06	 4.091E-01	 5.665E-01	 6.901E+02	 1.076E+01
    2.7000	 8.000E+00	 0.000E+00	 0.000E+00	 2.479E+00	-7.386E-01	 0.000E+00	 1.019E+02	 6.706E+00	 6.519E+02	 8.062E-02	-3.184E-03	 4.361E+03	 3.544E+02	 1.375E+03	 9.659E+02	 1.584E+02	 4.220E+01	-6.879E+03	-1.181E+03	 1.370E+04	 5.029E+02	 1.829E+06	 4.143E-01	 5.741E-01	 7.005E+02	 1.087E+01
    2.7500	 8.000E+00	 0.000E+00	 0.000E+00	 2.469E+00	-7.060E-01	 0.000E+00	 1.039E+02	 6.724E+00	 6.544E+02	 7.087E-02	-2.311E-03	 4.373E+03	 3.523E+02	 1.282E+03	 9.027E+02	 1.314E+02	 3.537E+01	-6.884E+03	-1.067E+03	 1.183E+04	 5.465E+02	 1.814E+06	 4.200E-01	 5.827E-01	 7.087E+02	 1.095E+01
    2.8000	 8.000E+00	 0.000E+00	 0.000E+00	 2.467E+00	-6.706E-01	 0.000E+00	 1.059E+02	 6.739E+00	 6.559E+02	 6.193E-02	-2.064E-03	 4.377E+03	 3.479E+02	 1.173E+03	 8.279E+02	 1.143E+02	 2.709E+01	-6.886E+03	-8.355E+02	 1.032E+04	 5.475E+02	 1.797E+06	 4.256E-01	 5.917E-01	 7.135E+02	 1.100E+01
    2.8500	 8.000E+00	 0.000E+00	 0.000E+00	 2.469E+00	-6.367E-01	 0.000E+00	 1.079E+02	 6.750E+00	 6.564E+02	 5.390E-02	-2.388E-03	 4.374E+03	 3.415E+02	 1.081E+03	 7.644E+02	 1.048E+02	 2.088E+01	-6.884E+03	-5.971E+02	 9.128E+03	 5.132E+02	 1.776E+06	 4.307E-01	 6.005E-01	 7.152E+02	 1.102E+01
    2.9000	 8.000E+00	 0.000E+00	 0.000E+00	 2.475E+00	-6.092E-01	 0.000E+00	 1.100E+02	 6.758E+00	 6.563E+02	 4.690E-02	-3.170E-03	 4.369E+03	 3.347E+02	 1.029E+03	 7.280E+02	 9.601E+01	 1.757E+01	-6.878E+03	-3.942E+02	 8.072E+03	 4.483E+02	 1.755E+06	 4.353E-01	 6.091E-01	 7.147E+02	 1.102E+01
    2.9500	 8.000E+00	 0.000E+00	 0.000E+00	 2.483E+00	-5.916E-01	 0.000E+00	 1.120E+02	 6.765E+00	 6.559E+02	 4.100E-02	-4.253E-03	 4.369E+03	 3.293E+02	 1.025E+03	 7.264E+02	 8.216E+01	 1.546E+01	-6.869E+03	-2.020E+02	 7.006E+03	 3.521E+02	 1.735E+06	 4.392E-01	 6.169E-01	 7.133E+02	 1.100E+01
    3.0000	 8.000E+00	 0.000E+00	 0.000E+00	 2.492E+00	-5.857E-01	 0.000E+00	 1.140E+02	 6.773E+00	 6.557E+02	 3.628E-02	-5.463E-03	 4.380E+03	 3.265E+02	 1.072E+03	 7.602E+02	 6.351E+01	 1.233E+01	-6.856E+03	 1.953E+01	 5.945E+03	 2.263E+02	 1.717E+06	 4.429E-01	 6.242E-01	 7.127E+02	 1.100E+01
    3.0500	 8.000E+00	 0.000E+00	 0.000E+00	 2.500E+00	-5.903E-01	 0.000E+00	 1.161E+02	 6.785E+00	 6.561E+02	 3.278E-02	-6.634E-03	 4.402E+03	 3.265E+02	 1.158E+03	 8.227E+02	 4.625E+01	 7.665E+00	-6.843E+03	 2.663E+02	 5.067E+03	 7.754E+01	 1.705E+06	 4.470E-01	 6.311E-01	 7.140E+02	 1.101E+01
    3.1000	 8.000E+00	 0.000E+00	 0.000E+00	 2.510E+00	-6.023E-01	 0.000E+00	 1.181E+02	 6.800E+00	 6.574E+02	 3.055E-02	-7.627E-03	 4.431E+03	 3.285E+02	 1.262E+03	 8.986E+02	 3.766E+01	 3.450E+00	-6.831E+03	 4.737E+02	 4.578E+03	-8.030E+01	 1.695E+06	 4.513E-01	 6.377E-01	 7.182E+02	 1.105E+01
    3.1500	 8.000E+00	 0.000E+00	 0.000E+00	 2.521E+00	-6.180E-01	 0.000E+00	 1.201E+02	 6.818E+00	 6.595E+02	 2.964E-02	-8.345E-03	 4.463E+03	 3.317E+02	 1.355E+03	 9.672E+02	 4.034E+01	 2.469E+00	-6.822E+03	 5.616E+02	 4.557E+03	-2.249E+02	 1.689E+06	 4.559E-01	 6.438E-01	 7.254E+02	 1.113E+01
    3.2000	 8.000E+00	 0.000E+00	 0.000E+00	 2.534E+00	-6.342E-01	 0.000E+00	 1.222E+02	 6.836E+00	 6.623E+02	 3.011E-02	-8.734E-03	 4.494E+03	 3.355E+02	 1.410E+03	 1.009E+03	 5.052E+01	 5.681E+00	-6.817E+03	 5.043E+02	 4.906E+03	-3.338E+02	 1.684E+06	 4.602E-01	 6.493E-01	 7.346E+02	 1.122E+01
    3.2500	 8.000E+00	 0.000E+00	 0.000E+00	 2.549E+00	-6.479E-01	 0.000E+00	 1.242E+02	 6.856E+00	 6.653E+02	 3.200E-02	-8.789E-03	 4.525E+03	 3.399E+02	 1.414E+03	 1.015E+03	 6.121E+01	 1.096E+01	-6.818E+03	 3.621E+02	 5.438E+03	-3.915E+02	 1.680E+06	 4.644E-01	 6.544E-01	 7.446E+02	 1.132E+01
    3.3000	 8.000E+00	 0.000E+00	 0.000E+00	 2.568E+00	-6.574E-01	 0.000E+00	 1.263E+02	 6.875E+00	 6.680E+02	 3.531E-02	-8.549E-03	 4.556E+03	 3.447E+02	 1.373E+03	 9.884E+02	 6.802E+01	 1.452E+01	-6.824E+03	 2.416E+02	 6.031E+03	-3.912E+02	 1.678E+06	 4.681E-01	 6.588E-01	 7.537E+02	 1.141E+01
    3.3500	 8.000E+00	 0.000E+00	 0.000E+00	 2.588E+00	-6.611E-01	 0.000E+00	 1.284E+02	 6.891E+00	 6.701E+02	 4.000E-02	-8.094E-03	 4.588E+03	 3.494E+02	 1.301E+03	 9.391E+02	 7.256E+01	 1.402E+01	-6.835E+03	 2.127E+02	 6.725E+03	-3.377E+02	 1.677E+06	 4.713E-01	 6.624E-01	 7.609E+02	 1.149E+01
    3.4000	 8.000E+00	 0.000E+00	 0.000E+00	 2.609E+00	-6.587E-01	 0.000E+00	 1.304E+02	 6.904E+00	 6.715E+02	 4.600E-02	-7.535E-03	 4.622E+03	 3.534E+02	 1.220E+03	 8.820E+02	 8.112E+01	 1.047E+01	-6.851E+03	 2.566E+02	 7.684E+03	-2.442E+02	 1.679E+06	 4.737E-01	 6.652E-01	 7.654E+02	 1.153E+01
    3.4500	 8.000E+00	 0.000E+00	 0.000E+00	 2.628E+00	-6.501E-01	 0.000E+00	 1.325E+02	 6.914E+00	 6.720E+02	 5.320E-02	-7.000E-03	 4.659E+03	 3.566E+02	 1.149E+03	 8.321E+02	 9.941E+01	 7.481E+00	-6.870E+03	 2.862E+02	 9.050E+03	-1.271E+02	 1.682E+06	 4.756E-01	 6.672E-01	 7.674E+02	 1.155E+01
    3.5000	 8.000E+00	 0.000E+00	 0.000E+00	 2.645E+00	-6.358E-01	 0.000E+00	 1.346E+02	 6.922E+00	 6.721E+02	 6.147E-02	-6.614E-03	 4.699E+03	 3.595E+02	 1.108E+03	 8.030E+02	 1.276E+02	 8.308E+00	-6.889E+03	 2.235E+02	 1.081E+04	-3.562E+00	 1.686E+06	 4.772E-01	 6.689E-01	 7.675E+02	 1.155E+01
    3.5500	 8.000E+00	 0.000E+00	 0.000E+00	 2.659E+00	-6.166E-01	 0.000E+00	 1.367E+02	 6.930E+00	 6.719E+02	 7.070E-02	-6.480E-03	 4.744E+03	 3.632E+02	 1.108E+03	 8.039E+02	 1.596E+02	 1.332E+01	-6.906E+03	 6.793E+01	 1.278E+04	 1.106E+02	 1.691E+06	 4.789E-01	 6.706E-01	 7.670E+02	 1.155E+01
    3.6000	 8.000E+00	 0.000E+00	 0.000E+00	 2.670E+00	-5.934E-01	 0.000E+00	 1.387E+02	 6.940E+00	 6.720E+02	 8.077E-02	-6.665E-03	 4.794E+03	 3.685E+02	 1.149E+03	 8.353E+02	 1.872E+02	 1.974E+01	-6.919E+03	-9.739E+01	 1.472E+04	 2.046E+02	 1.696E+06	 4.806E-01	 6.727E-01	 7.672E+02	 1.155E+01
    3.6500	 8.000E+00	 0.000E+00	 0.000E+00	 2.679E+00	-5.677E-01	 0.000E+00	 1.408E+02	 6.950E+00	 6.725E+02	 9.157E-02	-7.201E-03	 4.845E+03	 3.755E+02	 1.220E+03	 8.883E+02	 2.056E+02	 2.374E+01	-6.925E+03	-1.623E+02	 1.648E+04	 2.750E+02	 1.699E+06	 4.824E-01	 6.752E-01	 7.691E+02	 1.157E+01
    3.7000	 8.000E+00	 0.000E+00	 0.000E+00	 2.686E+00	-5.404E-01	 0.000E+00	 1.429E+02	 6.963E+00	 6.738E+02	 1.030E-01	-8.078E-03	 4.889E+03	 3.833E+02	 1.299E+03	 9.475E+02	 2.171E+02	 2.309E+01	-6.923E+03	-6.234E+01	 1.811E+04	 3.239E+02	 1.701E+06	 4.844E-01	 6.781E-01	 7.734E+02	 1.161E+01
    3.7500	 8.000E+00	 0.000E+00	 0.000E+00	 2.692E+00	-5.123E-01	 0.000E+00	 1.450E+02	 6.978E+00	 6.757E+02	 1.149E-01	-9.256E-03	 4.918E+03	 3.905E+02	 1.365E+03	 9.975E+02	 2.283E+02	 1.841E+01	-6.914E+03	 1.854E+02	 1.978E+04	 3.572E+02	 1.702E+06	 4.865E-01	 6.811E-01	 7.800E+02	 1.168E+01
    3.8000	 8.000E+00	 0.000E+00	 0.000E+00	 2.696E+00	-4.842E-01	 0.000E+00	 1.471E+02	 6.995E+00	 6.780E+02	 1.272E-01	-1.067E-02	 4.927E+03	 3.958E+02	 1.402E+03	 1.027E+03	 2.458E+02	 1.231E+01	-6.898E+03	 5.051E+02	 2.167E+04	 3.814E+02	 1.703E+06	 4.886E-01	 6.840E-01	 7.879E+02	 1.176E+01
    3.8500	 8.000E+00	 0.000E+00	 0.000E+00	 2.698E+00	-4.568E-01	 0.000E+00	 1.492E+02	 7.012E+00	 6.804E+02	 1.398E-01	-1.222E-02	 4.920E+03	 3.993E+02	 1.403E+03	 1.030E+03	 2.708E+02	 7.264E+00	-6.876E+03	 8.207E+02	 2.379E+04	 3.988E+02	 1.703E+06	 4.905E-01	 6.866E-01	 7.964E+02	 1.184E+01
    3.9000	 8.000E+00	 0.000E+00	 0.000E+00	 2.697E+00	-4.318E-01	 0.000E+00	 1.513E+02	 7.028E+00	 6.826E+02	 1.526E-01	-1.382E-02	 4.905E+03	 4.020E+02	 1.371E+03	 1.009E+03	 2.990E+02	 3.827E+00	-6.853E+03	 1.105E+03	 2.602E+04	 4.073E+02	 1.703E+06	 4.920E-01	 6.888E-01	 8.041E+02	 1.192E+01
    3.9500	 8.000E+00	 0.000E+00	 0.000E+00	 2.693E+00	-4.113E-01	 0.000E+00	 1.534E+02	 7.041E+00	 6.843E+02	 1.654E-01	-1.537E-02	 4.892E+03	 4.052E+02	 1.316E+03	 9.704E+02	 3.243E+02	 5.898E-01	-6.829E+03	 1.382E+03	 2.818E+04	 4.017E+02	 1.703E+06	 4.931E-01	 6.906E-01	 8.101E+02	 1.198E+01
    4.0000	 8.000E+00	 0.000E+00	 0.000E+00	 2.686E+00	-3.968E-01	 0.000E+00	 1.555E+02	 7.053E+00	 6.854E+02	 1.782E-01	-1.679E-02	 4.888E+03	 4.099E+02	 1.255E+03	 9.272E+02	 3.435E+02	-4.225E+00	-6.809E+03	 1.687E+03	 3.017E+04	 3.757E+02	 1.703E+06	 4.936E-01	 6.921E-01	 8.141E+02	 1.202E+01
    4.0500	 8.000E+00	 0.000E+00	 0.000E+00	 2.677E+00	-3.892E-01	 0.000E+00	 1.576E+02	 7.063E+00	 6.860E+02	 1.908E-01	-1.803E-02	 4.891E+03	 4.163E+02	 1.208E+03	 8.933E+02	 3.589E+02	-1.079E+01	-6.795E+03	 2.015E+03	 3.204E+04	 3.265E+02	 1.703E+06	 4.938E-01	 6.934E-01	 8.162E+02	 1.204E+01
    4.1000	 8.000E+00	 0.000E+00	 0.000E+00	 2.668E+00	-3.878E-01	 0.000E+00	 1.598E+02	 7.073E+00	 6.862E+02	 2.032E-01	-1.907E-02	 4.897E+03	 4.236E+02	 1.187E+03	 8.795E+02	 3.763E+02	-1.699E+01	-6.789E+03	 2.303E+03	 3.394E+04	 2.573E+02	 1.703E+06	 4.938E-01	 6.947E-01	 8.171E+02	 1.204E+01
    4.1500	 8.000E+00	 0.000E+00	 0.000E+00	 2.660E+00	-3.908E-01	 0.000E+00	 1.619E+02	 7.082E+00	 6.864E+02	 2.151E-01	-1.990E-02	 4.901E+03	 4.310E+02	 1.199E+03	 8.895E+02	 3.999E+02	-1.981E+01	-6.791E+03	 2.468E+03	 3.596E+04	 1.765E+02	 1.704E+06	 4.939E-01	 6.960E-01	 8.178E+02	 1.205E+01
    4.2000	 8.000E+00	 0.000E+00	 0.000E+00	 2.655E+00	-3.959E-01	 0.000E+00	 1.640E+02	 7.092E+00	 6.869E+02	 2.264E-01	-2.056E-02	 4.902E+03	 4.379E+02	 1.239E+03	 9.201E+02	 4.294E+02	-1.766E+01	-6.802E+03	 2.471E+03	 3.809E+04	 9.578E+01	 1.705E+06	 4.942E-01	 6.973E-01	 8.194E+02	 1.207E+01
    4.2500	 8.000E+00	 0.000E+00	 0.000E+00	 2.654E+00	-4.004E-01	 0.000E+00	 1.661E+02	 7.103E+00	 6.878E+02	 2.371E-01	-2.109E-02	 4.903E+03	 4.445E+02	 1.294E+03	 9.628E+02	 4.597E+02	-1.189E+01	-6.820E+03	 2.358E+03	 4.016E+04	 2.545E+01	 1.708E+06	 4.945E-01	 6.984E-01	 8.225E+02	 1.210E+01
    4.3000	 8.000E+00	 0.000E+00	 0.000E+00	 2.656E+00	-4.014E-01	 0.000E+00	 1.683E+02	 7.116E+00	 6.891E+02	 2.470E-01	-2.151E-02	 4.909E+03	 4.511E+02	 1.351E+03	 1.007E+03	 4.849E+02	-6.132E+00	-6.843E+03	 2.233E+03	 4.201E+04	-2.823E+01	 1.712E+06	 4.947E-01	 6.989E-01	 8.274E+02	 1.215E+01
    4.3500	 8.000E+00	 0.000E+00	 0.000E+00	 2.661E+00	-3.965E-01	 0.000E+00	 1.704E+02	 7.131E+00	 6.909E+02	 2.561E-01	-2.187E-02	 4.923E+03	 4.578E+02	 1.396E+03	 1.042E+03	 5.026E+02	-3.844E+00	-6.869E+03	 2.199E+03	 4.355E+04	-6.215E+01	 1.719E+06	 4.947E-01	 6.988E-01	 8.338E+02	 1.221E+01
    4.4000	 8.000E+00	 0.000E+00	 0.000E+00	 2.668E+00	-3.842E-01	 0.000E+00	 1.726E+02	 7.146E+00	 6.929E+02	 2.641E-01	-2.218E-02	 4.946E+03	 4.641E+02	 1.418E+03	 1.061E+03	 5.152E+02	-6.041E+00	-6.893E+03	 2.288E+03	 4.484E+04	-7.558E+01	 1.728E+06	 4.945E-01	 6.981E-01	 8.413E+02	 1.228E+01
    4.4500	 8.000E+00	 0.000E+00	 0.000E+00	 2.676E+00	-3.636E-01	 0.000E+00	 1.747E+02	 7.162E+00	 6.950E+02	 2.710E-01	-2.246E-02	 4.974E+03	 4.697E+02	 1.412E+03	 1.059E+03	 5.275E+02	-1.083E+01	-6.915E+03	 2.450E+03	 4.598E+04	-6.962E+01	 1.739E+06	 4.940E-01	 6.969E-01	 8.487E+02	 1.235E+01
    4.5000	 8.000E+00	 0.000E+00	 0.000E+00	 2.685E+00	-3.350E-01	 0.000E+00	 1.769E+02	 7.176E+00	 6.968E+02	 2.766E-01	-2.269E-02	 5.004E+03	 4.742E+02	 1.384E+03	 1.040E+03	 5.424E+02	-1.510E+01	-6.930E+03	 2.599E+03	 4.704E+04	-4.521E+01	 1.753E+06	 4.932E-01	 6.956E-01	 8.555E+02	 1.242E+01
    4.5500	 8.000E+00	 0.000E+00	 0.000E+00	 2.692E+00	-2.999E-01	 0.000E+00	 1.790E+02	 7.189E+00	 6.983E+02	 2.810E-01	-2.286E-02	 5.035E+03	 4.776E+02	 1.343E+03	 1.011E+03	 5.583E+02	-1.681E+01	-6.937E+03	 2.674E+03	 4.798E+04	-2.680E+00	 1.767E+06	 4.924E-01	 6.942E-01	 8.608E+02	 1.247E+01
    4.6000	 8.000E+00	 0.000E+00	 0.000E+00	 2.698E+00	-2.610E-01	 0.000E+00	 1.812E+02	 7.201E+00	 6.993E+02	 2.841E-01	-2.292E-02	 5.066E+03	 4.803E+02	 1.304E+03	 9.830E+02	 5.700E+02	-1.625E+01	-6.936E+03	 2.675E+03	 4.864E+04	 5.557E+01	 1.783E+06	 4.913E-01	 6.930E-01	 8.646E+02	 1.251E+01
    4.6500	 8.000E+00	 0.000E+00	 0.000E+00	 2.702E+00	-2.216E-01	 0.000E+00	 1.833E+02	 7.212E+00	 7.000E+02	 2.858E-01	-2.285E-02	 5.093E+03	 4.829E+02	 1.278E+03	 9.651E+02	 5.724E+02	-1.522E+01	-6.926E+03	 2.644E+03	 4.889E+04	 1.255E+02	 1.798E+06	 4.903E-01	 6.918E-01	 8.671E+02	 1.253E+01
    4.7000	 8.000E+00	 0.000E+00	 0.000E+00	 2.705E+00	-1.846E-01	 0.000E+00	 1.855E+02	 7.223E+00	 7.005E+02	 2.862E-01	-2.262E-02	 5.115E+03	 4.851E+02	 1.274E+03	 9.634E+02	 5.650E+02	-1.518E+01	-6.908E+03	 2.616E+03	 4.870E+04	 2.030E+02	 1.815E+06	 4.893E-01	 6.907E-01	 8.691E+02	 1.255E+01
    4.7500	 8.000E+00	 0.000E+00	 0.000E+00	 2.707E+00	-1.526E-01	 0.000E+00	 1.877E+02	 7.234E+00	 7.011E+02	 2.853E-01	-2.223E-02	 5.124E+03	 4.864E+02	 1.293E+03	 9.792E+02	 5.515E+02	-1.583E+01	-6.886E+03	 2.582E+03	 4.820E+04	 2.825E+02	 1.832E+06	 4.884E-01	 6.894E-01	 8.713E+02	 1.257E+01
    4.8000	 8.000E+00	 0.000E+00	 0.000E+00	 2.708E+00	-1.268E-01	 0.000E+00	 1.898E+02	 7.245E+00	 7.019E+02	 2.832E-01	-2.170E-02	 5.119E+03	 4.861E+02	 1.330E+03	 1.009E+03	 5.382E+02	-1.531E+01	-6.862E+03	 2.495E+03	 4.756E+04	 3.566E+02	 1.850E+06	 4.877E-01	 6.879E-01	 8.744E+02	 1.260E+01
    4.8500	 8.000E+00	 0.000E+00	 0.000E+00	 2.706E+00	-1.076E-01	 0.000E+00	 1.920E+02	 7.259E+00	 7.031E+02	 2.799E-01	-2.108E-02	 5.100E+03	 4.842E+02	 1.376E+03	 1.046E+03	 5.285E+02	-1.188E+01	-6.839E+03	 2.317E+03	 4.688E+04	 4.177E+02	 1.870E+06	 4.872E-01	 6.863E-01	 8.788E+02	 1.264E+01